
     Program PWSCF v.6.1 (svn rev. 13369) starts on 11Jun2017 at 14:48: 1 

     This program is part of the open-source Quantum ESPRESSO suite
     for quantum simulation of materials; please cite
         "P. Giannozzi et al., J. Phys.:Condens. Matter 21 395502 (2009);
          URL http://www.quantum-espresso.org", 
     in publications or presentations arising from this work. More details at
     http://www.quantum-espresso.org/quote

     Parallel version (MPI), running on     1 processors
     Waiting for input...
     Reading input from standard input

     Current dimensions of program PWSCF are:
     Max number of different atomic species (ntypx) = 10
     Max number of k-points (npk) =  40000
     Max angular momentum in pseudopotentials (lmaxx) =  3
     Message from routine iosys:
     minimal I/O required, wf_collect reset to FALSE

     gamma-point specific algorithms are used

     Subspace diagonalization in iterative solution of the eigenvalue problem:
     a serial algorithm will be used


     G-vector sticks info
     --------------------
     sticks:   dense  smooth     PW     G-vecs:    dense   smooth      PW
     Sum        2449    2449    609                91047    91047   11363



     bravais-lattice index     =            0
     lattice parameter (alat)  =      16.0000  a.u.
     unit-cell volume          =    4096.0000 (a.u.)^3
     number of atoms/cell      =            4
     number of atomic types    =            2
     number of electrons       =         8.00
     number of Kohn-Sham states=            4
     kinetic-energy cutoff     =      30.0000  Ry
     charge density cutoff     =     120.0000  Ry
     convergence threshold     =      1.0E-06
     mixing beta               =       0.7000
     number of iterations used =            8  plain     mixing
     Exchange-correlation      = PBE ( 1  4  3  4 0 0)
     nstep                     =         1000


     celldm(1)=  16.000000  celldm(2)=   0.000000  celldm(3)=   0.000000
     celldm(4)=   0.000000  celldm(5)=   0.000000  celldm(6)=   0.000000

     crystal axes: (cart. coord. in units of alat)
               a(1) = (   1.000000   0.000000   0.000000 )  
               a(2) = (   0.000000   1.000000   0.000000 )  
               a(3) = (   0.000000   0.000000   1.000000 )  

     reciprocal axes: (cart. coord. in units 2 pi/alat)
               b(1) = (  1.000000  0.000000  0.000000 )  
               b(2) = (  0.000000  1.000000  0.000000 )  
               b(3) = (  0.000000  0.000000  1.000000 )  


     PseudoPot. # 1 for  H read from file:
     ../GTH_PBE/H.q1.gth
     MD5 check sum: 1bc203b4ccdc7556521da00b64edec72
     Pseudo is Norm-conserving, Zval =  1.0
     GTH norm-conserving PP, generated by Matthias Krack
     Using radial grid of  929 points,  1 beta functions with: 
                l(1) =   0

     PseudoPot. # 2 for  N read from file:
     ../GTH_PBE/N.q5.gth
     MD5 check sum: b363b8d5f1d7321863e01e4875e4890c
     Pseudo is Norm-conserving, Zval =  5.0
     GTH norm-conserving PP, generated by Matthias Krack
     Using radial grid of 1085 points,  1 beta functions with: 
                l(1) =   0

     atomic species   valence    mass     pseudopotential
        H              1.00     1.01000      H( 1.00)
        N              5.00    14.01000      N( 1.00)

     No symmetry found



   Cartesian axes

     site n.     atom                  positions (alat units)
         1           N   tau(   1) = (   0.4503085   0.4518267   0.4524722  )
         2           H   tau(   2) = (   0.5667983   0.4305661   0.4292002  )
         3           H   tau(   3) = (   0.4332017   0.5694339   0.4316014  )
         4           H   tau(   4) = (   0.4365324   0.4366156   0.5707998  )

     number of k points=     1
                       cart. coord. in units 2pi/alat
        k(    1) = (   0.0000000   0.0000000   0.0000000), wk =   2.0000000

     Dense  grid:    45524 G-vectors     FFT dimensions: (  60,  60,  60)

     Estimated max dynamical RAM per process >      35.85MB

     Initial potential from superposition of free atoms

     negative rho (up, down):  2.993E-08 0.000E+00
     Starting wfc are random

     total cpu time spent up to now is        1.2 secs

     per-process dynamical memory:    35.6 Mb

     Self-consistent Calculation

     iteration #  1     ecut=    30.00 Ry     beta=0.70
     Davidson diagonalization with overlap
     ethr =  1.00E-02,  avg # of iterations =  9.0

     total cpu time spent up to now is        1.8 secs

     total energy              =     -17.50153869 Ry
     Harris-Foulkes estimate   =     -25.57680792 Ry
     estimated scf accuracy    <      10.47342277 Ry

     iteration #  2     ecut=    30.00 Ry     beta=0.70
     Davidson diagonalization with overlap
     ethr =  1.00E-02,  avg # of iterations =  6.0

     total cpu time spent up to now is        2.2 secs

     total energy              =     -22.16458060 Ry
     Harris-Foulkes estimate   =     -25.45375576 Ry
     estimated scf accuracy    <       6.25631576 Ry

     iteration #  3     ecut=    30.00 Ry     beta=0.70
     Davidson diagonalization with overlap
     ethr =  1.00E-02,  avg # of iterations =  3.0

     total cpu time spent up to now is        2.5 secs

     total energy              =     -22.70238880 Ry
     Harris-Foulkes estimate   =     -22.87977743 Ry
     estimated scf accuracy    <       0.49740502 Ry

     iteration #  4     ecut=    30.00 Ry     beta=0.70
     Davidson diagonalization with overlap
     ethr =  6.22E-03,  avg # of iterations =  1.0

     total cpu time spent up to now is        2.7 secs

     total energy              =     -22.60508059 Ry
     Harris-Foulkes estimate   =     -22.71321783 Ry
     estimated scf accuracy    <       0.17869397 Ry

     iteration #  5     ecut=    30.00 Ry     beta=0.70
     Davidson diagonalization with overlap
     ethr =  2.23E-03,  avg # of iterations =  2.0

     total cpu time spent up to now is        3.0 secs

     total energy              =     -22.63102775 Ry
     Harris-Foulkes estimate   =     -22.63821669 Ry
     estimated scf accuracy    <       0.01177453 Ry

     iteration #  6     ecut=    30.00 Ry     beta=0.70
     Davidson diagonalization with overlap
     ethr =  1.47E-04,  avg # of iterations =  2.0

     total cpu time spent up to now is        3.2 secs

     total energy              =     -22.63450673 Ry
     Harris-Foulkes estimate   =     -22.63518270 Ry
     estimated scf accuracy    <       0.00153564 Ry

     iteration #  7     ecut=    30.00 Ry     beta=0.70
     Davidson diagonalization with overlap
     ethr =  1.92E-05,  avg # of iterations =  2.0

     negative rho (up, down):  9.600E-06 0.000E+00

     total cpu time spent up to now is        3.5 secs

     total energy              =     -22.63481444 Ry
     Harris-Foulkes estimate   =     -22.63478982 Ry
     estimated scf accuracy    <       0.00000813 Ry

     iteration #  8     ecut=    30.00 Ry     beta=0.70
     Davidson diagonalization with overlap
     ethr =  1.02E-07,  avg # of iterations =  3.0

     negative rho (up, down):  9.954E-06 0.000E+00

     total cpu time spent up to now is        3.8 secs

     total energy              =     -22.63481487 Ry
     Harris-Foulkes estimate   =     -22.63482129 Ry
     estimated scf accuracy    <       0.00001247 Ry

     iteration #  9     ecut=    30.00 Ry     beta=0.70
     Davidson diagonalization with overlap
     ethr =  1.02E-07,  avg # of iterations =  2.0

     total cpu time spent up to now is        4.0 secs

     End of self-consistent calculation

          k = 0.0000 0.0000 0.0000 (  5682 PWs)   bands (ev):

   -21.2458 -11.0361 -11.0049  -5.9757

     highest occupied level (ev):    -5.9757

!    total energy              =     -22.63481795 Ry
     Harris-Foulkes estimate   =     -22.63481803 Ry
     estimated scf accuracy    <       0.00000035 Ry

     The total energy is the sum of the following terms:

     one-electron contribution =     -45.54994644 Ry
     hartree contribution      =      23.73093075 Ry
     xc contribution           =      -7.06381650 Ry
     ewald contribution        =       6.24801425 Ry

     convergence has been achieved in   9 iterations

     Forces acting on atoms (cartesian axes, Ry/au):

     atom    1 type  2   force =    -0.07550930   -0.07119931   -0.07743158
     atom    2 type  1   force =     0.09682591   -0.01506545   -0.01655890
     atom    3 type  1   force =    -0.01152501    0.09772998   -0.01482275
     atom    4 type  1   force =    -0.00979160   -0.01146522    0.10881323

     Total force =     0.220487     Total SCF correction =     0.000555

     BFGS Geometry Optimization

     number of scf cycles    =   1
     number of bfgs steps    =   0

     energy   new            =     -22.6348179504 Ry

     new trust radius        =       0.1294860843 bohr
     new conv_thr            =       0.0000010000 Ry


ATOMIC_POSITIONS (angstrom)
N        3.772729884   3.787865630   3.790032658
H        4.850225749   3.637560393   3.625205091
H        3.661748915   4.873019162   3.646453825
H        3.690866191   3.690685552   4.890449164


     NEW-OLD atomic charge density approx. for the potential

     total cpu time spent up to now is        4.5 secs

     per-process dynamical memory:    39.0 Mb

     Self-consistent Calculation

     iteration #  1     ecut=    30.00 Ry     beta=0.70
     Davidson diagonalization with overlap
     ethr =  1.00E-06,  avg # of iterations =  6.0

     total cpu time spent up to now is        4.9 secs

     total energy              =     -22.62692035 Ry
     Harris-Foulkes estimate   =     -22.68548382 Ry
     estimated scf accuracy    <       0.11475310 Ry

     iteration #  2     ecut=    30.00 Ry     beta=0.70
     Davidson diagonalization with overlap
     ethr =  1.43E-03,  avg # of iterations =  2.0

     total cpu time spent up to now is        5.1 secs

     total energy              =     -22.64271599 Ry
     Harris-Foulkes estimate   =     -22.65582068 Ry
     estimated scf accuracy    <       0.02364056 Ry

     iteration #  3     ecut=    30.00 Ry     beta=0.70
     Davidson diagonalization with overlap
     ethr =  2.96E-04,  avg # of iterations =  2.0

     total cpu time spent up to now is        5.4 secs

     total energy              =     -22.64897175 Ry
     Harris-Foulkes estimate   =     -22.65113024 Ry
     estimated scf accuracy    <       0.00478202 Ry

     iteration #  4     ecut=    30.00 Ry     beta=0.70
     Davidson diagonalization with overlap
     ethr =  5.98E-05,  avg # of iterations =  2.0

     total cpu time spent up to now is        5.6 secs

     total energy              =     -22.65002104 Ry
     Harris-Foulkes estimate   =     -22.65001430 Ry
     estimated scf accuracy    <       0.00006937 Ry

     iteration #  5     ecut=    30.00 Ry     beta=0.70
     Davidson diagonalization with overlap
     ethr =  8.67E-07,  avg # of iterations =  2.0

     total cpu time spent up to now is        5.9 secs

     total energy              =     -22.65004640 Ry
     Harris-Foulkes estimate   =     -22.65004508 Ry
     estimated scf accuracy    <       0.00000322 Ry

     iteration #  6     ecut=    30.00 Ry     beta=0.70
     Davidson diagonalization with overlap
     ethr =  4.02E-08,  avg # of iterations =  2.0

     total cpu time spent up to now is        6.1 secs

     End of self-consistent calculation

          k = 0.0000 0.0000 0.0000 (  5682 PWs)   bands (ev):

   -20.5913 -10.3774 -10.3312  -6.2365

     highest occupied level (ev):    -6.2365

!    total energy              =     -22.65004667 Ry
     Harris-Foulkes estimate   =     -22.65004665 Ry
     estimated scf accuracy    <       0.00000020 Ry

     The total energy is the sum of the following terms:

     one-electron contribution =     -43.45756131 Ry
     hartree contribution      =      22.69017727 Ry
     xc contribution           =      -6.87970343 Ry
     ewald contribution        =       4.99704080 Ry

     convergence has been achieved in   6 iterations

     Forces acting on atoms (cartesian axes, Ry/au):

     atom    1 type  2   force =     0.01549055    0.01479221    0.02592113
     atom    2 type  1   force =    -0.02956731    0.00823330    0.00791566
     atom    3 type  1   force =     0.00734411   -0.02998599    0.00717975
     atom    4 type  1   force =     0.00673264    0.00696047   -0.04101654

     Total force =     0.070115     Total SCF correction =     0.000552

     number of scf cycles    =   2
     number of bfgs steps    =   1

     energy   old            =     -22.6348179504 Ry
     energy   new            =     -22.6500466656 Ry

     CASE: energy  _new < energy  _old

     new trust radius        =       0.0318534846 bohr
     new conv_thr            =       0.0000004102 Ry


ATOMIC_POSITIONS (angstrom)
N        3.778871942   3.793732171   3.800384723
H        4.838430418   3.640862970   3.628377106
H        3.664697722   4.861056099   3.649331243
H        3.693570655   3.693479497   4.874047666


     NEW-OLD atomic charge density approx. for the potential

     total cpu time spent up to now is        6.6 secs

     per-process dynamical memory:    39.0 Mb

     Self-consistent Calculation

     iteration #  1     ecut=    30.00 Ry     beta=0.70
     Davidson diagonalization with overlap
     ethr =  1.00E-06,  avg # of iterations =  5.0

     total cpu time spent up to now is        6.9 secs

     total energy              =     -22.65144485 Ry
     Harris-Foulkes estimate   =     -22.65341578 Ry
     estimated scf accuracy    <       0.00432706 Ry

     iteration #  2     ecut=    30.00 Ry     beta=0.70
     Davidson diagonalization with overlap
     ethr =  5.41E-05,  avg # of iterations =  2.0

     total cpu time spent up to now is        7.1 secs

     total energy              =     -22.65203321 Ry
     Harris-Foulkes estimate   =     -22.65221922 Ry
     estimated scf accuracy    <       0.00038316 Ry

     iteration #  3     ecut=    30.00 Ry     beta=0.70
     Davidson diagonalization with overlap
     ethr =  4.79E-06,  avg # of iterations =  2.0

     total cpu time spent up to now is        7.4 secs

     total energy              =     -22.65213275 Ry
     Harris-Foulkes estimate   =     -22.65219648 Ry
     estimated scf accuracy    <       0.00013249 Ry

     iteration #  4     ecut=    30.00 Ry     beta=0.70
     Davidson diagonalization with overlap
     ethr =  1.66E-06,  avg # of iterations =  2.0

     total cpu time spent up to now is        7.6 secs

     total energy              =     -22.65216417 Ry
     Harris-Foulkes estimate   =     -22.65216403 Ry
     estimated scf accuracy    <       0.00000313 Ry

     iteration #  5     ecut=    30.00 Ry     beta=0.70
     Davidson diagonalization with overlap
     ethr =  3.91E-08,  avg # of iterations =  2.0

     total cpu time spent up to now is        7.8 secs

     End of self-consistent calculation

          k = 0.0000 0.0000 0.0000 (  5682 PWs)   bands (ev):

   -20.7483 -10.5017 -10.4855  -6.1915

     highest occupied level (ev):    -6.1915

!    total energy              =     -22.65216504 Ry
     Harris-Foulkes estimate   =     -22.65216496 Ry
     estimated scf accuracy    <       0.00000012 Ry

     The total energy is the sum of the following terms:

     one-electron contribution =     -43.93583918 Ry
     hartree contribution      =      22.92737152 Ry
     xc contribution           =      -6.92111074 Ry
     ewald contribution        =       5.27741336 Ry

     convergence has been achieved in   5 iterations

     Forces acting on atoms (cartesian axes, Ry/au):

     atom    1 type  2   force =    -0.00092969   -0.00056645   -0.00454243
     atom    2 type  1   force =    -0.00704880    0.00419966    0.00434354
     atom    3 type  1   force =     0.00417025   -0.00711609    0.00405914
     atom    4 type  1   force =     0.00380823    0.00348288   -0.00386026

     Total force =     0.015299     Total SCF correction =     0.000436

     number of scf cycles    =   3
     number of bfgs steps    =   2

     energy   old            =     -22.6500466656 Ry
     energy   new            =     -22.6521650401 Ry

     CASE: energy  _new < energy  _old

     new trust radius        =       0.0108233935 bohr
     new conv_thr            =       0.0000000712 Ry


ATOMIC_POSITIONS (angstrom)
N        3.778334098   3.793414032   3.797726269
H        4.834067037   3.643444347   3.631041984
H        3.667259051   4.856650144   3.651820865
H        3.695910553   3.695622215   4.871551620


     NEW-OLD atomic charge density approx. for the potential

     total cpu time spent up to now is        8.2 secs

     per-process dynamical memory:    39.0 Mb

     Self-consistent Calculation

     iteration #  1     ecut=    30.00 Ry     beta=0.70
     Davidson diagonalization with overlap
     ethr =  1.00E-06,  avg # of iterations =  3.0

     total cpu time spent up to now is        8.5 secs

     total energy              =     -22.65232105 Ry
     Harris-Foulkes estimate   =     -22.65237112 Ry
     estimated scf accuracy    <       0.00016977 Ry

     iteration #  2     ecut=    30.00 Ry     beta=0.70
     Davidson diagonalization with overlap
     ethr =  2.12E-06,  avg # of iterations =  2.0

     total cpu time spent up to now is        8.7 secs

     total energy              =     -22.65233887 Ry
     Harris-Foulkes estimate   =     -22.65233937 Ry
     estimated scf accuracy    <       0.00000868 Ry

     iteration #  3     ecut=    30.00 Ry     beta=0.70
     Davidson diagonalization with overlap
     ethr =  1.09E-07,  avg # of iterations =  2.0

     total cpu time spent up to now is        9.0 secs

     total energy              =     -22.65234038 Ry
     Harris-Foulkes estimate   =     -22.65234108 Ry
     estimated scf accuracy    <       0.00000172 Ry

     iteration #  4     ecut=    30.00 Ry     beta=0.70
     Davidson diagonalization with overlap
     ethr =  2.15E-08,  avg # of iterations =  2.0

     total cpu time spent up to now is        9.2 secs

     total energy              =     -22.65234078 Ry
     Harris-Foulkes estimate   =     -22.65234084 Ry
     estimated scf accuracy    <       0.00000018 Ry

     iteration #  5     ecut=    30.00 Ry     beta=0.70
     Davidson diagonalization with overlap
     ethr =  2.19E-09,  avg # of iterations =  2.0

     total cpu time spent up to now is        9.5 secs

     End of self-consistent calculation

          k = 0.0000 0.0000 0.0000 (  5682 PWs)   bands (ev):

   -20.7900 -10.5097 -10.4963  -6.2132

     highest occupied level (ev):    -6.2132

!    total energy              =     -22.65234082 Ry
     Harris-Foulkes estimate   =     -22.65234082 Ry
     estimated scf accuracy    <          6.0E-09 Ry

     The total energy is the sum of the following terms:

     one-electron contribution =     -44.03011868 Ry
     hartree contribution      =      22.97369578 Ry
     xc contribution           =      -6.92906681 Ry
     ewald contribution        =       5.33314888 Ry

     convergence has been achieved in   5 iterations

     Forces acting on atoms (cartesian axes, Ry/au):

     atom    1 type  2   force =    -0.00622466   -0.00594204   -0.00080802
     atom    2 type  1   force =     0.00087834    0.00238614    0.00204300
     atom    3 type  1   force =     0.00260871    0.00104756    0.00196550
     atom    4 type  1   force =     0.00273760    0.00250835   -0.00320048

     Total force =     0.011006     Total SCF correction =     0.000079

     number of scf cycles    =   4
     number of bfgs steps    =   3

     energy   old            =     -22.6521650401 Ry
     energy   new            =     -22.6523408210 Ry

     CASE: energy  _new < energy  _old

     new trust radius        =       0.0133248908 bohr
     new conv_thr            =       0.0000000176 Ry


ATOMIC_POSITIONS (angstrom)
N        3.773464394   3.788906562   3.795588595
H        4.831214711   3.647199493   3.634591413
H        3.671155310   4.853887175   3.655176293
H        3.699736323   3.699137507   4.866784438


     NEW-OLD atomic charge density approx. for the potential

     total cpu time spent up to now is        9.9 secs

     per-process dynamical memory:    39.0 Mb

     Self-consistent Calculation

     iteration #  1     ecut=    30.00 Ry     beta=0.70
     Davidson diagonalization with overlap
     ethr =  1.00E-06,  avg # of iterations =  4.0

     total cpu time spent up to now is       10.1 secs

     total energy              =     -22.65233116 Ry
     Harris-Foulkes estimate   =     -22.65276934 Ry
     estimated scf accuracy    <       0.00108565 Ry

     iteration #  2     ecut=    30.00 Ry     beta=0.70
     Davidson diagonalization with overlap
     ethr =  1.36E-05,  avg # of iterations =  2.0

     total cpu time spent up to now is       10.4 secs

     total energy              =     -22.65245062 Ry
     Harris-Foulkes estimate   =     -22.65250019 Ry
     estimated scf accuracy    <       0.00010404 Ry

     iteration #  3     ecut=    30.00 Ry     beta=0.70
     Davidson diagonalization with overlap
     ethr =  1.30E-06,  avg # of iterations =  2.0

     total cpu time spent up to now is       10.6 secs

     total energy              =     -22.65247506 Ry
     Harris-Foulkes estimate   =     -22.65249458 Ry
     estimated scf accuracy    <       0.00004106 Ry

     iteration #  4     ecut=    30.00 Ry     beta=0.70
     Davidson diagonalization with overlap
     ethr =  5.13E-07,  avg # of iterations =  2.0

     total cpu time spent up to now is       10.9 secs

     total energy              =     -22.65248419 Ry
     Harris-Foulkes estimate   =     -22.65248428 Ry
     estimated scf accuracy    <       0.00000075 Ry

     iteration #  5     ecut=    30.00 Ry     beta=0.70
     Davidson diagonalization with overlap
     ethr =  9.38E-09,  avg # of iterations =  2.0

     total cpu time spent up to now is       11.2 secs

     total energy              =     -22.65248442 Ry
     Harris-Foulkes estimate   =     -22.65248441 Ry
     estimated scf accuracy    <       0.00000003 Ry

     iteration #  6     ecut=    30.00 Ry     beta=0.70
     Davidson diagonalization with overlap
     ethr =  3.44E-10,  avg # of iterations =  2.0

     total cpu time spent up to now is       11.4 secs

     End of self-consistent calculation

          k = 0.0000 0.0000 0.0000 (  5682 PWs)   bands (ev):

   -20.8265 -10.4916 -10.4781  -6.2646

     highest occupied level (ev):    -6.2646

!    total energy              =     -22.65248443 Ry
     Harris-Foulkes estimate   =     -22.65248443 Ry
     estimated scf accuracy    <          1.2E-09 Ry

     The total energy is the sum of the following terms:

     one-electron contribution =     -44.07699253 Ry
     hartree contribution      =      22.99584710 Ry
     xc contribution           =      -6.93268524 Ry
     ewald contribution        =       5.36134624 Ry

     convergence has been achieved in   6 iterations

     Forces acting on atoms (cartesian axes, Ry/au):

     atom    1 type  2   force =    -0.00341117   -0.00317393   -0.00568839
     atom    2 type  1   force =     0.00169186    0.00067707    0.00070281
     atom    3 type  1   force =     0.00087266    0.00179296    0.00078349
     atom    4 type  1   force =     0.00084666    0.00070391    0.00420209

     Total force =     0.009019     Total SCF correction =     0.000033

     number of scf cycles    =   5
     number of bfgs steps    =   4

     energy   old            =     -22.6523408210 Ry
     energy   new            =     -22.6524844302 Ry

     CASE: energy  _new < energy  _old

     new trust radius        =       0.0133348694 bohr
     new conv_thr            =       0.0000000144 Ry


ATOMIC_POSITIONS (angstrom)
N        3.769424211   3.785187908   3.791156570
H        4.829903849   3.649750945   3.637074860
H        3.673875419   4.852667646   3.657595874
H        3.702367260   3.701524240   4.866313434


     NEW-OLD atomic charge density approx. for the potential

     total cpu time spent up to now is       11.8 secs

     per-process dynamical memory:    39.0 Mb

     Self-consistent Calculation

     iteration #  1     ecut=    30.00 Ry     beta=0.70
     Davidson diagonalization with overlap
     ethr =  1.00E-06,  avg # of iterations =  4.0

     total cpu time spent up to now is       12.0 secs

     total energy              =     -22.65236648 Ry
     Harris-Foulkes estimate   =     -22.65286474 Ry
     estimated scf accuracy    <       0.00112592 Ry

     iteration #  2     ecut=    30.00 Ry     beta=0.70
     Davidson diagonalization with overlap
     ethr =  1.41E-05,  avg # of iterations =  2.0

     total cpu time spent up to now is       12.3 secs

     total energy              =     -22.65249843 Ry
     Harris-Foulkes estimate   =     -22.65256417 Ry
     estimated scf accuracy    <       0.00012522 Ry

     iteration #  3     ecut=    30.00 Ry     beta=0.70
     Davidson diagonalization with overlap
     ethr =  1.57E-06,  avg # of iterations =  2.0

     total cpu time spent up to now is       12.5 secs

     total energy              =     -22.65252962 Ry
     Harris-Foulkes estimate   =     -22.65255168 Ry
     estimated scf accuracy    <       0.00004622 Ry

     iteration #  4     ecut=    30.00 Ry     beta=0.70
     Davidson diagonalization with overlap
     ethr =  5.78E-07,  avg # of iterations =  2.0

     total cpu time spent up to now is       12.8 secs

     total energy              =     -22.65253974 Ry
     Harris-Foulkes estimate   =     -22.65253980 Ry
     estimated scf accuracy    <       0.00000068 Ry

     iteration #  5     ecut=    30.00 Ry     beta=0.70
     Davidson diagonalization with overlap
     ethr =  8.48E-09,  avg # of iterations =  2.0

     total cpu time spent up to now is       13.1 secs

     total energy              =     -22.65253997 Ry
     Harris-Foulkes estimate   =     -22.65253996 Ry
     estimated scf accuracy    <       0.00000003 Ry

     iteration #  6     ecut=    30.00 Ry     beta=0.70
     Davidson diagonalization with overlap
     ethr =  3.65E-10,  avg # of iterations =  2.0

     total cpu time spent up to now is       13.3 secs

     End of self-consistent calculation

          k = 0.0000 0.0000 0.0000 (  5682 PWs)   bands (ev):

   -20.8338 -10.4529 -10.4494  -6.3118

     highest occupied level (ev):    -6.3118

!    total energy              =     -22.65253998 Ry
     Harris-Foulkes estimate   =     -22.65253997 Ry
     estimated scf accuracy    <          1.3E-09 Ry

     The total energy is the sum of the following terms:

     one-electron contribution =     -44.04835559 Ry
     hartree contribution      =      22.98060349 Ry
     xc contribution           =      -6.92977107 Ry
     ewald contribution        =       5.34498319 Ry

     convergence has been achieved in   6 iterations

     Forces acting on atoms (cartesian axes, Ry/au):

     atom    1 type  2   force =    -0.00095117   -0.00091495    0.00002601
     atom    2 type  1   force =     0.00116640   -0.00026231   -0.00029462
     atom    3 type  1   force =    -0.00014311    0.00118721   -0.00013505
     atom    4 type  1   force =    -0.00007212   -0.00000995    0.00040366

     Total force =     0.002208     Total SCF correction =     0.000035

     number of scf cycles    =   6
     number of bfgs steps    =   5

     energy   old            =     -22.6524844302 Ry
     energy   new            =     -22.6525399755 Ry

     CASE: energy  _new < energy  _old

     new trust radius        =       0.0010298921 bohr
     new conv_thr            =       0.0000000100 Ry


ATOMIC_POSITIONS (angstrom)
N        3.769185390   3.784959470   3.791196811
H        4.830379828   3.649564259   3.636886148
H        3.673742653   4.853146513   3.657493504
H        3.702262867   3.701460495   4.866564275


     NEW-OLD atomic charge density approx. for the potential

     total cpu time spent up to now is       13.8 secs

     per-process dynamical memory:    39.0 Mb

     Self-consistent Calculation

     iteration #  1     ecut=    30.00 Ry     beta=0.70
     Davidson diagonalization with overlap
     ethr =  1.00E-06,  avg # of iterations =  2.0

     Threshold (ethr) on eigenvalues was too large:
     Diagonalizing with lowered threshold

     Davidson diagonalization with overlap
     ethr =  3.08E-08,  avg # of iterations =  1.0

     total cpu time spent up to now is       14.1 secs

     total energy              =     -22.65254139 Ry
     Harris-Foulkes estimate   =     -22.65254256 Ry
     estimated scf accuracy    <       0.00000267 Ry

     iteration #  2     ecut=    30.00 Ry     beta=0.70
     Davidson diagonalization with overlap
     ethr =  3.34E-08,  avg # of iterations =  2.0

     total cpu time spent up to now is       14.3 secs

     total energy              =     -22.65254177 Ry
     Harris-Foulkes estimate   =     -22.65254186 Ry
     estimated scf accuracy    <       0.00000020 Ry

     iteration #  3     ecut=    30.00 Ry     beta=0.70
     Davidson diagonalization with overlap
     ethr =  2.56E-09,  avg # of iterations =  2.0

     total cpu time spent up to now is       14.6 secs

     total energy              =     -22.65254182 Ry
     Harris-Foulkes estimate   =     -22.65254185 Ry
     estimated scf accuracy    <       0.00000006 Ry

     iteration #  4     ecut=    30.00 Ry     beta=0.70
     Davidson diagonalization with overlap
     ethr =  7.83E-10,  avg # of iterations =  2.0

     total cpu time spent up to now is       14.8 secs

     End of self-consistent calculation

          k = 0.0000 0.0000 0.0000 (  5682 PWs)   bands (ev):

   -20.8292 -10.4503 -10.4455  -6.3126

     highest occupied level (ev):    -6.3126

!    total energy              =     -22.65254184 Ry
     Harris-Foulkes estimate   =     -22.65254184 Ry
     estimated scf accuracy    <          2.5E-09 Ry

     The total energy is the sum of the following terms:

     one-electron contribution =     -44.03472392 Ry
     hartree contribution      =      22.97394295 Ry
     xc contribution           =      -6.92861559 Ry
     ewald contribution        =       5.33685473 Ry

     convergence has been achieved in   4 iterations

     Forces acting on atoms (cartesian axes, Ry/au):

     atom    1 type  2   force =    -0.00000607   -0.00002885   -0.00009530
     atom    2 type  1   force =     0.00003139   -0.00009625   -0.00007450
     atom    3 type  1   force =    -0.00002248    0.00008162    0.00004011
     atom    4 type  1   force =    -0.00000283    0.00004348    0.00012969

     Total force =     0.000231     Total SCF correction =     0.000034
     SCF correction compared to forces is large: reduce conv_thr to get better values

     bfgs converged in   7 scf cycles and   6 bfgs steps
     (criteria: energy <  1.0E-04 Ry, force <  1.0E-03 Ry/Bohr)

     End of BFGS Geometry Optimization

     Final energy   =     -22.6525418364 Ry
Begin final coordinates

ATOMIC_POSITIONS (angstrom)
N        3.769185390   3.784959470   3.791196811
H        4.830379828   3.649564259   3.636886148
H        3.673742653   4.853146513   3.657493504
H        3.702262867   3.701460495   4.866564275
End final coordinates



     init_run     :      0.30s CPU      0.78s WALL (       1 calls)
     electrons    :     10.63s CPU     10.93s WALL (       7 calls)
     update_pot   :      1.78s CPU      1.92s WALL (       6 calls)
     forces       :      0.72s CPU      0.75s WALL (       7 calls)

     Called by init_run:
     wfcinit      :      0.03s CPU      0.31s WALL (       1 calls)
     potinit      :      0.18s CPU      0.21s WALL (       1 calls)

     Called by electrons:
     c_bands      :      2.79s CPU      2.86s WALL (      42 calls)
     sum_band     :      1.03s CPU      1.04s WALL (      42 calls)
     v_of_rho     :      6.92s CPU      7.12s WALL (      48 calls)
     mix_rho      :      0.66s CPU      0.70s WALL (      42 calls)

     Called by c_bands:
     init_us_2    :      0.07s CPU      0.06s WALL (      85 calls)
     regterg      :      2.74s CPU      2.82s WALL (      42 calls)

     Called by sum_band:

     Called by *egterg:
     h_psi        :      2.58s CPU      2.66s WALL (     150 calls)
     g_psi        :      0.04s CPU      0.04s WALL (     107 calls)
     rdiaghg      :      0.01s CPU      0.27s WALL (     142 calls)

     Called by h_psi:
     h_psi:pot    :      2.58s CPU      2.64s WALL (     150 calls)
     h_psi:calbec :      0.03s CPU      0.10s WALL (     150 calls)
     vloc_psi     :      2.53s CPU      2.51s WALL (     150 calls)
     add_vuspsi   :      0.01s CPU      0.03s WALL (     150 calls)

     General routines
     calbec       :      0.03s CPU      0.10s WALL (     178 calls)
     fft          :      2.62s CPU      2.82s WALL (     543 calls)
     fftw         :      2.24s CPU      2.29s WALL (     660 calls)

     Parallel routines
     fft_scatter  :      1.13s CPU      1.17s WALL (    1203 calls)

     PWSCF        :    13.52s CPU        14.94s WALL


   This run was terminated on:  14:48:16  11Jun2017            

=------------------------------------------------------------------------------=
   JOB DONE.
=------------------------------------------------------------------------------=
